Program Version,EnergyPlus, Version 8.7.0-78a111df4a, YMD=2026.06.23 15:46
1,5,Environment Title[],Latitude[deg],Longitude[deg],Time Zone[],Elevation[m]
2,6,Day of Simulation[],Month[],Day of Month[],DST Indicator[1=yes 0=no],Hour[],StartMinute[],EndMinute[],DayType
3,3,Cumulative Day of Simulation[],Month[],Day of Month[],DST Indicator[1=yes 0=no],DayType  ! When Daily Report Variables Requested
4,2,Cumulative Days of Simulation[],Month[]  ! When Monthly Report Variables Requested
5,1,Cumulative Days of Simulation[] ! When Run Period Report Variables Requested
6,7,Environment,Site Outdoor Air Drybulb Temperature [C] !Daily [Value,Min,Hour,Minute,Max,Hour,Minute]
7,7,Environment,Site Outdoor Air Relative Humidity [%] !Daily [Value,Min,Hour,Minute,Max,Hour,Minute]
8,7,BEZERREIRO,Zone Operative Temperature [C] !Daily [Value,Min,Hour,Minute,Max,Hour,Minute]
9,7,CIRCULA,Zone Operative Temperature [C] !Daily [Value,Min,Hour,Minute,Max,Hour,Minute]
82,7,BEZERREIRO,Zone Air Relative Humidity [%] !Daily [Value,Min,Hour,Minute,Max,Hour,Minute]
115,7,CIRCULA,Zone Air Relative Humidity [%] !Daily [Value,Min,Hour,Minute,Max,Hour,Minute]
End of Data Dictionary
1,ANO, -31.52, -52.21,  -3.00,  17.00
3,1, 1, 1, 0,Sunday
6,26.587500000000003,22.2, 4,60,32.1,17,60
7,77.91666666666667,52.0,13,60,98.0, 4,60
8,28.67173805574159,27.511558620671367, 6,30,29.844526773072084,16,15
9,28.554190249676045,27.47335229121009, 6,30,29.61778588709889,17,15
82,67.18429795263852,62.497760757467627,16,15,71.93994950131436, 6,45
115,67.64550001571847,63.35823480201983,17,30,72.13599808852163, 6,45
3,2, 1, 2, 0,Holiday
6,26.733854166666665,21.7,24,60,33.3,16,60
7,78.421875,59.0,14,60,95.0, 5,60
8,29.68758775443167,28.002402897728687, 6,30,31.747761268596226,16,45
9,29.51846556622353,27.9248175762847, 6,30,31.354113314102407,16,60
82,63.08477190010614,55.42870616864099,16,60,69.48778369869359, 6,30
115,63.67701300074012,56.72710241029192,16,60,69.82946830782967, 6,30
3,3, 1, 3, 0,Tuesday
6,22.05677083333333,19.4,24,60,24.5,17,60
7,82.34895833333333,47.0,13,60,97.0, 6,60
8,29.27647755910259,28.391225493996076, 6,30,30.679181556837084,14,60
9,29.075479560271007,28.16270499405917,24,60,30.345335993227829,14,60
82,65.1613897786315,60.18193041892249,14,60,68.92301064709204,24,60
115,65.91656441490349,61.31143297461949,14,60,69.91616518278677,24,60
3,4, 1, 4, 0,Wednesday
6,22.032812499999996,16.1, 8,60,27.9,17,60
7,82.03125,63.0,13,60,96.75, 1,15
8,29.810756054134413,27.68658253516532, 6,30,32.33421813564098,17,15
9,29.414753790400114,27.423144413794597, 6,30,31.67942521543783,17,30
82,63.82220664004905,54.72133053851797,17,15,71.95214442658795, 6,30
115,65.22898318142804,56.8238547783408,17,30,73.06185927300737, 6,30
3,5, 1, 5, 0,Thursday
6,25.410937500000004,18.9, 7,60,32.1,18,60
7,81.16666666666667,60.0,12,60,97.0, 4,60
8,29.810369014980254,28.542092223847506, 6,30,31.059299699299964,16,60
9,29.389837576330604,28.196970677959937, 6,30,30.530942180467365,17,15
82,63.49649407639464,58.849784830002828,16,60,68.25966664484229, 6,30
115,65.04148662337694,60.67509562705795,16,60,69.66250148609058, 6,30
3,6, 1, 6, 0,Friday
6,26.118749999999996,19.5, 7,60,33.0,16,60
7,73.66145833333333,50.0,16,60,98.0, 5,60
8,29.218957256978784,28.47564979112694, 7,45,30.20736543905435,17,45
9,28.82268443122396,28.12916960731712, 7,45,29.714083689705327,17,60
82,65.58812445303566,61.71303040182416,17,60,68.61428261385963, 7,45
115,67.11094324497349,63.49009684450332,17,60,70.0299435101163, 7,60
3,7, 1, 7, 0,Saturday
6,27.646874999999999,21.2, 8,60,37.1,18,60
7,70.015625,37.0,12,60,97.0, 5,60
8,30.09639306558854,28.01709237396195, 6,30,32.421314058092928,16,60
9,29.69532729854305,27.700287922667095, 6,30,31.8027017812521,17,15
82,62.21349882614268,53.886824304170847,17,15,70.03219944721895, 6,30
115,63.62583764947535,55.78901543838308,18,15,71.36071351318432, 6,30
3,8, 1, 8, 0,Sunday
6,23.821875000000003,20.1, 7,60,29.8,18,60
7,66.26041666666667,33.0,16,60,98.0, 6,60
8,30.285499385210149,28.757627345482619, 6,30,32.034061324381358,16,60
9,29.909394628537297,28.49067955223533, 6,30,31.41050163630827,16,60
82,61.46525235759541,55.36244641117667,16,60,66.82270102237138, 6,30
115,62.78415676646572,57.388555565265409,16,60,67.90053612525294, 6,30
3,9, 1, 9, 0,Monday
6,24.865625000000006,19.8, 8,60,30.2,17,60
7,67.47395833333333,33.0,11,60,97.0, 6,60
8,31.226343462909794,28.917933749411618, 6,30,33.806527834582158,17,30
9,30.8060111244807,28.595368425814969, 6,30,33.094086934379259,17,45
82,58.50107816030167,50.01971523835266,17,30,66.54212677358585, 6,30
115,59.868911190612589,52.08913385510755,17,45,67.8277154924288, 6,30
3,10, 1,10, 0,Tuesday
6,22.26875,20.7,14,60,24.7,10,60
7,72.18229166666667,30.0,13,60,97.0, 6,60
8,31.128778255057527,30.015540495097189, 7,30,32.55161173272515,15,45
9,30.757642098761975,29.70380485624573, 7,30,32.05304039519751,15,45
82,58.619645168529419,53.906372432962317,16,45,62.27831039754484, 7,30
115,59.85798625996062,55.45507802812671,15,45,63.43647378616319, 7,30
3,11, 1,11, 0,Wednesday
6,22.22708333333333,18.9, 7,60,25.5,13,60
7,90.89583333333333,72.0,13,60,97.0, 7,60
8,30.249618124984509,29.244599749516977, 7,30,32.16647578134429,15,60
9,29.75822891288531,28.874124968959536, 7,45,31.417127170387539,15,60
82,61.76730249803271,55.19268122574884,15,60,65.28430406862079, 7,45
115,63.50965964634733,57.59265916225817,15,60,66.99325877177199,24,60
3,12, 1,12, 0,Thursday
6,22.219791666666663,20.2,24,60,24.9,17,60
7,64.88541666666667,42.0,15,60,97.0, 2,60
8,29.92148813832779,28.502000660296078, 6,30,31.7553790676994,16,15
9,29.33852254922525,28.00043098823495, 6,30,30.96503386717034,16,15
82,63.405664189693407,56.91855330400749,16,15,68.50882799098787, 6,30
115,65.5212779333608,59.55032376743807,16,15,70.51846286246838, 6,30
3,13, 1,13, 0,Friday
6,22.58489583333333,20.349999999999999, 1,15,24.8,16,60
7,73.94270833333333,62.0,16,60,86.0, 5,60
8,30.032313574765586,28.401469019274594, 6,30,32.048456610391898,17,30
9,29.399758498618636,27.848138044754486, 6,30,31.1834613172378,17,15
82,62.88242858136459,55.65260381035605,17,30,68.9280570233732, 6,30
115,65.16102207259506,58.46234944773521,17,15,71.1750075289561, 6,30
3,14, 1,14, 0,Saturday
6,23.214583333333328,21.2, 5,60,26.3,14,60
7,79.78645833333333,66.0,12,60,93.0,22,60
8,30.449065981962577,28.672094042823767, 6,30,32.45761684020839,16,30
9,29.80884667479451,28.09852619402296, 6,30,31.58132226569232,16,15
82,61.176942552888508,54.18022003406475,16,45,67.56975181023134, 6,30
115,63.420201714403869,56.95201817593583,16,30,69.87203051857589, 6,30
3,15, 1,15, 0,Sunday
6,24.146874999999999,20.3, 6,60,29.8,18,60
7,75.46875,46.0,13,60,96.0, 6,60
8,30.81657810065555,29.017219968703679, 6,30,32.946508589697348,16,60
9,30.211568276190734,28.460438675683588, 6,30,32.13973088213449,16,60
82,59.82029795282574,52.59677633444264,16,60,66.12858195956957, 6,30
115,61.89691238559018,55.08033178606864,16,60,68.3212635608228, 6,30
3,16, 1,16, 0,Holiday
6,25.343749999999998,19.4, 8,60,31.9,18,60
7,83.61979166666667,53.0,10,60,97.0, 2,60
8,31.06261162523845,29.411255152917528, 6,30,33.26006901793991,15,15
9,30.510628294820905,28.918817691685349, 6,30,32.45861541732384,15,15
82,58.98276794042761,51.785077958836279,15,15,64.69460187219734, 6,30
115,60.84216664212989,54.192973874195377,15,15,66.59165163330067, 6,30
3,17, 1,17, 0,Tuesday
6,26.058333333333335,20.7, 8,60,32.4,17,60
7,75.08854166666667,51.0,17,60,97.0, 1,60
8,31.075227554846199,29.362870630518168, 6,30,33.03948625456579,16,45
9,30.54877791118413,28.89741486266513, 6,30,32.31873691915741,16,45
82,58.99662396018485,52.45695531663045,16,45,64.91716868489326, 6,30
115,60.780561865398819,54.66536797814593,16,45,66.71364199771097, 6,30
3,18, 1,18, 0,Wednesday
6,27.51822916666667,21.0, 8,60,34.6,18,60
7,87.89583333333333,70.0,13,60,98.0, 4,60
8,30.72232291808085,29.39026442685814, 7,30,31.932371303804034,16,15
9,30.257842972523276,28.983545620266985, 7,30,31.387069987196257,17,60
82,60.10118218590845,55.83389837824308,17,60,64.89728085898453, 7,45
115,61.722703476753938,57.581176715204779,17,60,66.48142953783435, 7,45
3,19, 1,19, 0,Thursday
6,29.90625,23.6, 8,60,36.3,16,60
7,79.69270833333333,48.0,15,60,97.0, 1,15
8,31.720800108828539,29.484265819990968, 6,45,34.16434780579727,17,15
9,31.300115635827266,29.135638580864219, 6,45,33.53554756055732,17,15
82,56.796522552162709,49.028720731170867,17,30,64.32945523322467, 6,45
115,58.13738295812331,50.82231335725741,17,30,65.66799314955975, 6,45
3,20, 1,20, 0,Friday
6,27.972395833333338,24.7,19,60,35.4,16,60
7,69.32291666666667,42.0,17,60,91.0, 6,60
8,32.23000087971905,30.29809445892939, 6,45,34.63155675210039,17,30
9,31.9109979593956,30.050278992462116, 6,45,34.089610513612068,17,45
82,55.139350927087779,47.69871757238744,17,30,61.420047300013617, 6,45
115,56.1189237297643,49.19798637705727,17,45,62.34404275553693, 6,45
3,21, 1,21, 0,Saturday
6,28.33854166666667,22.2, 8,60,36.8,18,60
7,68.4375,41.0,12,60,98.0, 6,60
8,32.30651587107245,30.400543879482279, 6,45,34.52811686939735,17,15
9,32.01796150323775,30.198497006298056, 6,45,33.99054434171441,17,30
82,54.71009253218609,47.82962322913365,17,15,60.83038559276564, 6,45
115,55.59416534157851,49.32845126973464,17,30,61.583018852501549, 6,45
3,22, 1,22, 0,Sunday
6,25.061458333333339,20.6, 9,60,28.9,20,60
7,66.33333333333333,43.0,12,60,94.0, 6,60
8,32.20614689421739,30.50073621428102, 6,45,34.28149762234053,16,45
9,31.946170546900317,30.324399632964288, 6,45,33.82034341135284,16,45
82,55.144484459485479,48.65008123479266,16,45,60.626722590375738, 6,45
115,55.944398474669508,49.95657633542717,16,60,61.27946746691768, 6,45
3,23, 1,23, 0,Monday
6,30.38489583333333,24.8, 7,60,36.3,20,60
7,68.56770833333333,50.0,14,60,89.0, 6,60
8,32.93695101502741,30.81722278483162, 6,45,35.48593909057906,17,15
9,32.64799376422245,30.60234472365542, 6,45,34.89604215742958,17,30
82,52.852428719511468,45.38874904260183,17,15,59.426862914957357, 6,45
115,53.68018766314871,46.93953738915901,17,30,60.18774562037898, 6,45
3,24, 1,24, 0,Tuesday
6,27.000000000000005,20.4,24,60,33.1,13,60
7,70.40104166666667,47.0,13,60,93.0, 6,60
8,32.78375597428482,31.646369834044955,24,60,34.342642825074438,16,15
9,32.55117419013081,31.467285375913585,24,60,33.920817253347227,15,45
82,53.175516683725259,48.64851862286317,15,60,57.11700058154363,24,60
115,53.870653242475778,49.79067075917419,15,45,57.73122595076884,24,60
3,25, 1,25, 0,Wednesday
6,20.51458333333333,17.7, 7,60,23.7,18,60
7,67.77604166666667,46.0,11,60,83.0,23,60
8,31.561772103718785,30.451814972919168, 6,45,33.11690319095679,16,30
9,31.240861464115154,30.234178983462234,24,60,32.571194865640439,16,15
82,57.657469041722119,52.71772287207288,16,30,61.25869796755714, 6,45
115,58.69585056309955,54.354123599627047,16,15,62.09516601450612,24,60
3,26, 1,26, 0,Thursday
6,21.04739583333333,18.3, 5,60,23.6,14,60
7,68.11979166666667,48.0,11,60,86.0, 6,60
8,31.503648176409269,29.548353560351065, 6,45,33.966162585370707,16,60
9,31.03947279046533,29.17281776257462, 6,45,33.221912877717787,16,60
82,57.870497716653527,49.95888135106289,16,60,64.4524415915518, 6,45
115,59.35671895270426,52.095222028535228,16,60,65.85708417000514, 6,45
3,27, 1,27, 0,Friday
6,23.844791666666678,22.0, 7,60,26.9,17,60
7,70.79166666666667,54.0,12,60,84.0, 5,60
8,31.458021249572579,29.833347973881517, 6,45,33.613366586476768,15,60
9,30.97719885097376,29.40464426767251, 6,45,32.88619326113195,15,60
82,57.76795194973176,50.80652413831049,15,60,63.20154111415186, 6,45
115,59.339184751174119,52.94298983837164,15,60,64.79508464830372, 6,45
3,28, 1,28, 0,Saturday
6,27.06822916666667,21.1, 7,60,35.6,19,60
7,74.609375,58.0,14,60,92.0, 6,60
8,31.559531846314554,29.66377194109569, 6,45,33.758417309041529,16,60
9,31.044645357152459,29.24175068168477, 6,45,33.019296779143257,16,60
82,57.37584876007161,50.15686919284947,16,60,63.84111752983828, 6,45
115,59.048043454942597,52.30552712959439,16,60,65.4273917693997, 6,45
3,29, 1,29, 0,Sunday
6,24.28802083333333,21.7,24,60,30.2,16,60
7,80.13541666666667,53.0,11,60,93.0, 4,60
8,31.88414170960758,30.232039950015485, 6,45,34.30058782640717,16,15
9,31.448117659868303,29.838609901150606, 6,45,33.65159251961336,16,45
82,56.38246768460547,48.83964895345625,16,30,61.68376718314483, 6,45
115,57.76877624220119,50.666561841120017,16,60,63.12405434941013, 6,45
3,30, 1,30, 0,Monday
6,26.18541666666667,21.724999999999999, 1,15,35.7,17,60
7,89.25520833333333,80.0, 8,60,96.0, 5,60
8,31.9318502434642,30.02547716191428, 6,45,34.50460062974562,16,45
9,31.484918636282534,29.628287383735189, 6,45,33.81379082601802,16,45
82,56.18316385111314,48.14707962170281,16,45,62.420545038919808, 6,45
115,57.58834197544069,50.070112717719798,16,60,63.87838860757222, 6,45
3,31, 1,31, 0,Tuesday
6,23.985937500000003,21.9, 4,60,27.2,18,60
7,92.30729166666667,81.0,10,60,97.0,24,60
8,30.633304611325547,29.60754192509644,24,60,31.46781562161563,13,30
9,30.20597883973046,29.150999618764023,24,60,30.981789079409283,11,60
82,60.30465678433436,57.62974355328726,11,60,63.869352620983779,24,60
115,61.798180697453329,59.17371310219297,11,60,65.56282451408481,24,60
3,32, 2, 1, 0,Wednesday
6,24.75052083333333,21.9,24,60,28.4,14,60
7,92.30729166666667,74.0,14,60,97.0, 1,15
8,29.961802834681526,29.004879293269963, 6,45,31.304640256905168,15,60
9,29.410629812749744,28.55653355836634, 6,45,30.619508919074855,15,15
82,62.653397411158859,57.94059793816646,15,30,66.02815912029729, 6,45
115,64.63424316077119,60.21380202954253,15,15,67.74193028785966, 6,45
3,33, 2, 2, 0,Thursday
6,26.116145833333336,21.4, 2,60,35.7,17,60
7,94.94270833333333,84.0,13,60,98.0, 9,60
8,29.631033148081064,28.443739101700048, 6,45,31.305505631130126,16,60
9,28.992812797526896,27.907172622874918, 6,45,30.4255178742969,17,15
82,63.67927150498027,57.43914617311916,17,15,68.0366692095841, 6,45
115,66.04046601110896,60.44573558057152,17,15,70.17246116594497, 6,45
3,34, 2, 3, 0,Friday
6,26.61770833333333,20.8, 2,60,34.8,15,60
7,81.20833333333333,47.0,13,60,98.0, 2,60
8,30.402515213417137,28.147097814455255, 6,60,33.268498490005757,17,15
9,29.778132975086078,27.604101543345345, 6,60,32.32326605705396,17,30
82,61.14288201476663,51.34219376251031,17,15,69.29424791174128, 6,60
115,63.31049916076038,54.2018208671905,17,30,71.53359911219116, 6,60
3,35, 2, 4, 0,Saturday
6,25.875,22.3, 7,60,31.7,18,60
7,71.94791666666667,38.0,17,60,98.0, 4,60
8,30.459925122972306,28.668513284657189, 6,60,32.296195230528628,17,30
9,29.941847846479189,28.215909470757837, 6,60,31.579596301074319,17,30
82,60.945144558650678,54.59808043727591,17,30,67.30970276387855, 6,60
115,62.76983745894844,56.88369299630899,17,45,69.14962025643112, 6,60
3,36, 2, 5, 0,Sunday
6,30.056250000000003,23.6, 8,60,37.6,19,60
7,70.890625,39.0,12,60,96.0, 2,60
8,31.120533221869228,28.91232036014641, 6,60,33.43526288243618,17,15
9,30.660268645694008,28.525695176559148, 6,60,32.76428194429492,17,45
82,58.69076916060498,50.987907743742038,17,30,66.42658392583665, 6,60
115,60.235675127433477,52.981538652975739,17,45,67.97412621517573, 6,60
3,37, 2, 6, 0,Monday
6,28.43697916666667,25.5,24,60,32.1,11,60
7,82.61458333333333,60.0,16,60,98.0, 6,60
8,31.60575058343322,30.064471031633745, 7,30,33.34860581923324,16,30
9,31.297499016926556,29.796274308176935, 7,30,32.91617243250019,16,30
82,57.02217611238736,51.4582261382852,16,45,62.04175769687286, 7,30
115,58.02236806606118,52.77244023533638,16,45,63.04551994881127, 7,30
3,38, 2, 7, 0,Tuesday
6,30.232812499999999,24.2, 8,60,37.6,19,60
7,67.05729166666667,32.0,14,60,97.0, 6,60
8,32.12540413818544,29.787734420856656, 6,60,34.679340388258967,16,60
9,31.841724269517639,29.587770368535368, 6,60,34.13488032886416,17,15
82,55.457819187221797,47.47441861016863,16,60,63.18970788376631, 6,60
115,56.33291458994029,48.991604183489247,17,15,63.964974837357349, 6,60
3,39, 2, 8, 0,Wednesday
6,27.76041666666666,23.9,20,60,35.5,17,60
7,79.375,57.0,14,60,97.0, 4,60
8,33.01449518739899,30.762195807223763, 6,60,35.9799555848121,17,30
9,32.80633852088751,30.634319217265707, 6,60,35.43331781150408,17,30
82,52.804738213918607,44.18789249163162,17,30,59.79099432865933, 6,60
115,53.37693632567192,45.58987454630233,17,45,60.27235244761574, 6,60
3,40, 2, 9, 0,Thursday
6,28.113541666666668,23.7, 8,60,32.0,13,60
7,76.76041666666667,55.0,11,60,95.0,23,60
8,33.33205114171749,31.602134382643614, 6,60,35.78437444015415,16,30
9,33.14233936955306,31.474216366207118, 6,60,35.3011090179808,16,30
82,51.79463182994405,44.930450413918268,16,30,56.812427941165257, 6,60
115,52.31708145248813,46.186707646858177,16,30,57.26223992116771, 6,60
3,41, 2,10, 0,Friday
6,26.380729166666656,21.5,24,60,31.8,18,60
7,85.15625,72.0,15,60,95.0, 3,60
8,32.90021929059383,31.429152728588855, 6,60,34.56874126512474,17,30
9,32.70306314654493,31.30121994504737, 6,60,34.1554042096967,17,30
82,53.26300530571388,48.25430394358901,17,45,57.74058034024199, 6,60
115,53.84030406823999,49.40086036299732,17,45,58.199538223883809, 6,60
3,42, 2,11, 0,Saturday
6,27.45989583333333,21.525, 1,15,34.4,18,60
7,87.81770833333333,75.0,15,60,95.0, 8,60
8,32.474468357585958,30.91692949185502, 6,60,34.43263140300683,17,15
9,32.19745529353637,30.749256099506828, 6,60,33.908618137610478,17,30
82,54.35800165073554,48.34407483385465,17,30,59.33783101568376, 6,60
115,55.199510804966788,49.79605256107086,17,30,59.93730308104046, 6,60
3,43, 2,12, 0,Sunday
6,23.60625,21.4, 5,60,27.7,14,60
7,92.90625,81.0,17,60,97.0, 3,60
8,30.995258998919117,29.792390920455426,24,60,31.90715401492561, 1,15
9,30.64878495561781,29.391217386764944,24,60,31.673893627432279, 1,15
82,58.99502278535078,55.939531690559878, 1,15,63.19245620827698,24,60
115,60.18469940490076,56.71296843987995, 1,15,64.66104335524824,24,60
3,44, 2,13, 0,Monday
6,21.92239583333334,20.6,16,60,22.8, 6,60
7,85.91666666666667,63.0,15,60,98.0,24,60
8,30.556114476939614,28.99683048994285, 6,60,33.254157307355288,16,45
9,30.073127643372506,28.58525350251307, 6,60,32.48724277405201,16,45
82,60.792427623524449,51.89540988296568,16,45,66.09954019159864, 6,60
115,62.43738682752511,54.1864585909542,16,45,67.66678855269618, 6,60
3,45, 2,14, 0,Tuesday
6,21.8015625,19.6, 9,60,23.6,16,60
7,81.08854166666667,50.0,15,60,99.0, 7,60
8,29.994785026767759,28.70897933016561, 6,60,31.825860331909796,16,45
9,29.43221160233936,28.21850332716405, 6,60,31.00561230510395,16,45
82,63.166988792563937,56.76623037737814,16,45,67.66800167028248, 6,60
115,65.19630424001604,59.48386947314974,16,45,69.6010243219725, 6,60
3,46, 2,15, 0,Wednesday
6,22.384895833333343,20.1,23,60,26.1,18,60
7,84.59895833333333,64.0,14,60,98.0, 5,60
8,30.154857980441866,28.294345891197837, 6,60,32.45729188666547,16,15
9,29.526160483756656,27.749129726165429, 6,60,31.589554279504065,16,45
82,62.931362949905999,54.81730142875004,16,15,69.75870170705287, 6,60
115,65.19270378363315,57.61549099010506,16,45,71.99858143529556, 6,60
3,47, 2,16, 0,Thursday
6,22.88333333333333,18.7, 7,60,27.8,16,60
7,93.453125,79.0,17,60,97.0, 7,60
8,29.892153207116725,28.705820581986069, 6,60,31.50353765516554,15,30
9,29.294431793903216,28.151747225742306, 6,60,30.74180501765513,15,45
82,63.67411265292211,57.818750682355169,15,45,68.11276046294526, 6,60
115,65.88800240932987,60.40794352385075,15,45,70.35367828498777, 6,60
3,48, 2,17, 0,Friday
6,23.542708333333328,19.5, 9,60,28.4,16,60
7,86.75,64.0,16,60,98.0, 1,60
8,30.19554051252541,28.20637493992954, 6,60,32.6283890964595,16,60
9,29.616203530191326,27.682849811251626, 6,60,31.796281731259286,16,60
82,62.561337599687117,53.97164684290116,16,60,69.91674189344495, 6,60
115,64.6311124075651,56.59665186866925,17,15,72.0969179849764, 6,60
3,49, 2,18, 0,Saturday
6,24.30208333333334,20.2, 8,60,29.4,16,60
7,82.71875,58.0,15,60,98.0, 4,60
8,29.721075269761056,28.526647330394334, 8,15,31.05184701295658,17,15
9,29.20439948612348,28.05724750433062, 8,15,30.43341628307087,17,30
82,63.96966171577008,58.990222150475329,17,30,68.55637200891349, 8,15
115,65.90196248729382,61.13260980693249,17,30,70.48213379100094, 8,30
3,50, 2,19, 0,Sunday
6,25.148437499999998,21.3, 8,60,30.7,16,60
7,82.72916666666667,66.0,16,60,95.0,24,60
8,28.93728572453942,28.279962198571054, 9,30,29.751017690580384,16,45
9,28.469578498074485,27.836636036620335, 9,30,29.219043009804268,16,45
82,66.61222605964818,63.36236563278618,16,45,69.29005761457904, 9,30
115,68.44613391865519,65.3346693819255,16,45,71.11297460493911, 9,30
3,51, 2,20, 0,Holiday
6,22.514062499999999,20.6, 7,60,26.3,19,60
7,88.26041666666667,69.0,12,60,98.0, 6,60
8,28.827750105156345,27.44784117446646, 6,60,30.644922168269809,13,60
9,28.38407570209456,27.057502984774609, 6,60,30.042334981894997,13,60
82,66.91259149859731,60.05852654027862,13,60,72.33541263092902, 6,60
115,68.63021861465282,62.16092213309005,13,60,74.02582204477378, 6,60
3,52, 2,21, 0,Tuesday
6,24.920312499999999,21.1, 8,60,30.7,15,60
7,81.25520833333333,48.0,13,60,98.0, 2,60
8,28.561635093319837,27.273275454193305, 8,30,30.103057477047643,15,45
9,28.092097574622757,26.85676952191558, 8,30,29.50925013926833,15,60
82,67.94496695539547,61.85602332470835,15,45,73.168617459654, 8,30
115,69.81179139903255,64.01881098348496,15,60,74.99446435060345, 8,45
3,53, 2,22, 0,Wednesday
6,23.6796875,20.4, 7,60,28.3,13,60
7,81.02604166666667,53.0,12,60,98.0, 5,60
8,29.356980826175698,27.118130909732046, 7,15,32.12780361279596,16,60
9,28.904954711700783,26.737338101512174, 7,15,31.392405472744476,17,15
82,65.20907662340176,54.99700729455035,16,60,73.91524366757622, 7,15
115,66.87570482104013,57.382094155651198,17,15,75.60908966071462, 7,15
3,54, 2,23, 0,Thursday
6,23.522916666666665,20.0,23,60,29.0,16,60
7,80.55729166666667,55.0,16,60,98.0, 7,60
8,30.05102392212255,28.05937312033069, 7,15,32.63633276430676,16,60
9,29.649436104050709,27.707305445025118, 7,15,31.999948477924229,16,60
82,62.40112696069858,53.22393287469501,16,60,69.83930811234582, 7,15
115,63.81924509642138,55.217773701427457,16,60,71.32568848383665, 7,15
3,55, 2,24, 0,Friday
6,23.31354166666667,19.3, 7,60,28.9,17,60
7,81.39583333333333,57.0,13,60,98.0, 7,60
8,29.173792166953477,28.16779816876015, 8,30,30.29987909758685,16,60
9,28.79342921532648,27.86221320449529, 8,30,29.79453701403018,17,15
82,65.5146936873968,61.244266162751788,17,15,69.3874618779398, 8,30
115,66.97849722453069,63.06023628232098,17,15,70.67207445290637, 8,30
3,56, 2,25, 0,Saturday
6,21.65729166666667,20.1,24,60,24.8,12,60
7,84.83854166666667,71.0,12,60,95.0, 6,60
8,28.652299725522416,27.80281892957037, 7,15,29.71284840809784,14,45
9,28.25781297469797,27.468822663905095, 7,15,29.222331022685326,16,45
82,67.8323457325511,63.6879527585746,14,60,71.16406074483855, 7,15
115,69.39231143588826,65.53747769216322,14,60,72.56893855218145, 7,15
3,57, 2,26, 0,Sunday
6,18.718229166666668,17.6,24,60,20.1, 2,60
7,80.96875,65.0,11,60,93.0, 6,60
8,27.49684355304733,26.632858222864046,24,60,28.186740249766318,14,45
9,27.056833721656905,26.185509979601564,24,60,27.67020177337219,14,45
82,72.48208872464385,69.76480959774851,14,45,76.15092754214874,24,60
115,74.34478083065562,71.81272312416059,14,45,78.15335846782479,24,60
3,58, 2,27, 0,Monday
6,18.884375000000003,15.0, 6,60,23.8,18,60
7,78.03125,64.0,15,60,90.0, 5,60
8,26.349410036956216,25.790042991346576, 7,45,26.93727195142069,14,45
9,25.812354593450207,25.31690221197743, 7,45,26.298285219125107,14,45
82,77.35548187298955,74.68029134097066,14,60,79.92863559222588, 7,45
115,79.80133149695222,77.5104512645384,14,60,82.19167465022928, 9,30
3,59, 2,28, 0,Tuesday
6,19.053645833333336,17.2, 3,60,23.2,17,60
7,85.28125,77.0,13,60,93.0,21,60
8,26.197046731821048,25.200609696348829, 7,15,27.562865952225598,16,60
9,25.586947247491059,24.66730025505359, 7,15,26.788883826184639,16,60
82,78.0168231823828,71.71947426014732,16,60,82.56688634076753, 7,15
115,80.82452008838497,75.05794871807248,16,60,85.18032740808528, 7,15
3,60, 3, 1, 0,Wednesday
6,20.145833333333337,16.6, 8,60,25.1,17,60
7,93.89583333333333,88.0, 5,60,97.0,22,60
8,25.59673094647093,24.938192734188595, 7,15,26.434842312343997,16,45
9,24.911912297563338,24.357604751249569, 7,15,25.602012585543844,16,45
82,80.83386875712314,76.7739738810262,16,45,83.92158768075587, 8,30
115,84.162328605121,80.65654621590476,16,45,86.93854157100603, 8,30
3,61, 3, 2, 0,Thursday
6,20.538020833333339,16.7, 5,60,25.2,14,60
7,88.18229166666667,63.0,13,60,98.0, 4,60
8,26.0702980038058,24.316485903137989, 7,15,28.29264879959614,15,45
9,25.376343088214907,23.658504272511946, 7,15,27.383153609298718,16,30
82,79.04869305552882,68.90016874242706,15,45,87.39891182118035, 7,15
115,82.31085949005277,72.67824832454066,16,45,90.88321514061441, 7,15
3,62, 3, 3, 0,Friday
6,21.3015625,17.1, 4,60,26.6,15,60
7,90.984375,73.0,10,60,98.0, 6,60
8,26.488636427743076,24.842002894984668, 7,15,28.765488832019935,15,15
9,25.837034857801993,24.243294915975818, 7,15,27.88597108974153,15,15
82,77.1858019498164,67.12285805295203,15,15,84.89607165826394, 7,15
115,80.18235708222498,70.69274263531085,15,15,88.00614972716198, 7,15
3,63, 3, 4, 0,Saturday
6,23.449999999999993,20.9,11,60,28.7,16,60
7,83.15625,65.0,16,60,96.0,21,60
8,27.021680898565547,25.46579095031971, 7,15,29.066271334179328,15,60
9,26.415577797538174,24.892152210686129, 7,15,28.282204106575678,16,15
82,74.51273982254502,65.65168353002187,16,15,81.47863324167004, 7,15
115,77.19549545989814,68.73915042335355,16,15,84.32725829819693, 7,15
3,64, 3, 5, 0,Sunday
6,24.469791666666663,20.8, 8,60,29.4,18,60
7,79.66666666666667,58.0,18,60,95.0, 1,15
8,26.74293946178952,25.8806103183994, 7,15,27.714785150610468,14,60
9,26.233394488891084,25.39130935915655, 7,15,27.112156252170366,14,60
82,75.52176875470274,71.12224975555718,14,60,79.45387276076939, 7,15
115,77.83232043994158,73.60064233674633,17,30,81.82513550968706, 7,15
3,65, 3, 6, 0,Monday
6,23.948958333333335,19.2, 7,60,29.7,18,60
7,73.60416666666667,45.0,13,60,97.0, 7,60
8,27.219372759894126,25.419459739695644, 7,15,29.169674833519005,16,45
9,26.776459850786819,25.037219745235498, 7,15,28.553905530828055,16,60
82,73.63640219058671,65.28163606071296,16,60,81.6548106623056, 7,15
115,75.55358188227935,67.69107936582609,17,15,83.56437649163633, 7,15
3,66, 3, 7, 0,Tuesday
6,21.440624999999998,18.7,24,60,25.4,16,60
7,76.03645833333333,47.0,15,60,95.0, 4,60
8,27.333372834964206,25.889951133421137, 7,15,29.13016939556525,15,60
9,26.945330423856729,25.56055497387102, 7,15,28.538909408442949,15,60
82,73.28951900187728,65.59185156653472,15,60,79.63789644017003, 7,15
115,74.96441812152479,67.91363901376052,15,60,81.25105156550259, 7,15
3,67, 3, 8, 0,Wednesday
6,20.111979166666669,16.4, 8,60,25.1,18,60
7,77.36979166666667,45.0,14,60,98.0, 7,60
8,27.22075679140443,25.80702769922889, 7,30,29.007408856528167,16,45
9,26.81016638130244,25.482403921586994, 7,30,28.42465104625483,16,60
82,73.78741253464078,66.00989104021393,16,60,80.15450294708983, 7,45
115,75.56707250404637,68.31003345828742,16,60,81.72657748515894, 7,45
3,68, 3, 9, 0,Thursday
6,21.148437500000005,15.2, 5,60,27.6,18,60
7,87.69791666666667,67.0,13,60,97.0, 1,15
8,27.956702880945288,25.856991744647475, 7,15,30.45429046300879,16,45
9,27.506616023689973,25.48203523154009, 7,15,29.78028604481641,16,60
82,70.60046215355031,60.43816738767882,16,60,79.5963984505339, 7,15
115,72.42797289964615,62.85513528572473,16,60,81.39985306941361, 7,15
3,69, 3,10, 0,Friday
6,22.58385416666667,18.8,24,60,28.5,17,60
7,88.734375,69.0,15,60,97.0, 5,60
8,27.752702270039167,26.808053418889416, 8,30,28.81160323792932,17,30
9,27.34850308529218,26.450737326994799, 8,30,28.322852017739217,17,30
82,71.06755055787552,66.56654958625833,17,30,74.99248263802252, 8,30
115,72.7672699263946,68.48352527288857,17,30,76.62545998241365, 8,30
3,70, 3,11, 0,Saturday
6,19.749479166666668,16.3, 6,60,24.7,16,60
7,84.234375,65.0,17,60,97.0,24,60
8,27.548266582265119,26.07671283910956, 7,15,29.64203453711368,16,30
9,27.14674944364917,25.744197345386384, 7,15,29.003117077680224,16,30
82,72.40285554754827,63.69661726128526,16,30,78.67831458261478, 7,15
115,74.0922478303076,66.11635720550471,16,30,80.2639841400637, 7,15
3,71, 3,12, 1,Sunday
6,20.091666666666666,14.4, 6,60,25.9,17,60
7,83.70833333333333,57.0,16,60,97.0, 3,60
8,27.02761907156925,25.58387096229778, 7,30,28.779376046176723,15,15
9,26.57290285417569,25.20616329435503, 7,30,28.128776859631686,16,15
82,74.95340761988445,67.30095153304225,15,15,81.4354030782558, 7,30
115,76.96281843608887,69.91430413383569,16,30,83.30029305186074, 7,30
3,72, 3,13, 1,Monday
6,21.60260416666667,16.2, 8,60,27.1,15,60
7,83.05729166666667,56.0,13,60,98.0, 4,60
8,26.14604506227567,25.312953632571828, 8,15,27.110727441326714,17,30
9,25.68627925164959,24.898385992693016, 8,30,26.558257380028928,17,30
82,78.83709171913454,74.26282210790753,17,30,82.8424972908385, 8,30
115,81.00222276385803,76.73095266404471,17,30,84.91722750555823, 8,30
3,73, 3,14, 1,Tuesday
6,24.22864583333333,20.0, 4,60,30.8,17,60
7,82.91666666666667,56.0,16,60,98.0, 5,60
8,25.48472410474629,24.762168982412388, 7,45,26.209216290180757,17,45
9,25.051411094390948,24.36203465562247, 7,45,25.722002252990174,17,45
82,81.32363993263248,77.48970294744537,17,60,85.16792085423158, 7,45
115,83.45003431251348,79.77109944209822,17,60,87.22862561494228, 7,45
3,74, 3,15, 1,Wednesday
6,23.62760416666667,19.6,24,60,27.4,18,60
7,82.75520833333333,62.0,15,60,97.0, 1,60
8,26.150064376194007,24.755167931009728, 7,30,27.89784039867066,16,15
9,25.74894364217967,24.401704901920746, 7,30,27.32399140433244,16,30
82,77.91965925904685,70.02059673665882,16,30,84.25700750098376, 7,30
115,79.76856720925947,72.44212438200607,16,30,86.06605849573953, 7,30
3,75, 3,16, 1,Thursday
6,21.464583333333335,16.5, 7,60,25.8,12,60
7,78.76041666666667,53.0,12,60,98.0, 5,60
8,26.438346837591938,24.78225003309422, 7,30,28.222841823847398,17,15
9,26.058670203583917,24.459742130375333, 7,30,27.69143601932712,17,15
82,76.91513299743987,68.75871178668,17,30,84.86096071613749, 7,30
115,78.63283442627899,70.95294628689844,17,30,86.54579811946916, 7,30
3,76, 3,17, 1,Friday
6,22.928645833333336,20.4, 7,60,27.3,17,60
7,77.11458333333333,41.0,14,60,97.0, 7,60